31
 energy: -59.539493432308 gnorm: 0.000991214544 xtb: 6.2.2 (655bc02)
O           0.71933425803711   -0.00655722104663    1.32614390328012
O          -3.60307972238464    3.26384502177352    0.90721429065644
O          -1.25045048871300    1.10160968346663    0.93497752563625
O          -1.44101927113167    3.25250298456156    0.12651558867730
O          -0.13628408784499    1.04139254596685    1.72177303789362
O          -1.08869373938652    1.94519519944515   -0.16428723768720
O          -2.75630550630563    3.52514311331786   -0.17319435447922
C           2.00895092107973    1.36778403220100   -0.29487548321615
C           3.41130227257886    1.50762157059611   -0.38555489222653
C           4.12841766423828    0.43422193407322   -1.02089960963018
C           4.03216556903303   -0.55849097262260   -0.07905772427126
C           3.00961735129272   -0.41844330955962    0.91949817900506
C           1.89506750399465    0.42778482657852    0.73635904430256
C          -3.87914182262342    6.40382676814876    2.54952730750230
C          -3.08875576827142    5.61584630969490    1.74273446719641
C          -3.60396372335929    4.26851032624861    1.85833189469942
C          -3.92047534610536    3.97727423824631    3.14008673548767
C          -3.92729250398653    4.95212854069089    4.30238703061368
C          -3.47622346156580    6.43794709598026    3.96645159737683
H           1.23829755594183    1.62035982973188   -0.99953008028299
H           3.82493492003566    1.64248399191985    0.62707990180215
H           4.51682187000903    0.34964441260178   -2.01711903332344
H           4.55440939840523   -1.50085944782792   -0.15628848514810
H           2.91815618580145   -1.19152036888931    1.66943848952237
H          -4.95240316886785    6.29090208234878    2.41704408671364
H          -2.01613853623812    5.74542792785253    1.69218042194144
H          -4.15973022759438    2.95516213630351    3.40209856376650
H          -4.95320654860058    5.01676015469152    4.66973246981489
H          -3.31754781631955    4.53230516655077    5.10854272147730
H          -2.40127331115202    6.54128323554279    4.10011130657474
H          -4.00213042000357     7.14531819142285    4.60493833632440
